ITEM: TIMESTEP
0
ITEM: NUMBER OF ATOMS
800
ITEM: BOX BOUNDS pp pp pp
-9.2999999999999989e+00 9.2999999999999989e+00
-1.6108072510390596e+01 1.6108072510390596e+01
-2.7899999999999995e+01 2.7899999999999995e+01
ITEM: ATOMS id type x y z
1 1 -9.3 -16.1081 0
2 1 -8.835 -15.3027 0
3 1 -8.37 -16.1081 0
4 1 -7.905 -15.3027 0
5 1 -7.44 -16.1081 0
6 1 -6.975 -15.3027 0
7 1 -6.51 -16.1081 0
8 1 -6.045 -15.3027 0
9 1 -5.58 -16.1081 0
10 1 -5.115 -15.3027 0
11 1 -4.65 -16.1081 0
12 1 -4.185 -15.3027 0
13 1 -3.72 -16.1081 0
14 1 -3.255 -15.3027 0
15 1 -2.79 -16.1081 0
16 1 -2.325 -15.3027 0
17 1 -1.86 -16.1081 0
18 1 -1.395 -15.3027 0
19 1 -0.93 -16.1081 0
20 1 -0.465 -15.3027 0
21 1 0 -16.1081 0
22 1 0.465 -15.3027 0
23 1 0.93 -16.1081 0
24 1 1.395 -15.3027 0
25 1 1.86 -16.1081 0
26 1 2.325 -15.3027 0
27 1 2.79 -16.1081 0
28 1 3.255 -15.3027 0
29 1 3.72 -16.1081 0
30 1 4.185 -15.3027 0
31 1 4.65 -16.1081 0
32 1 5.115 -15.3027 0
33 1 5.58 -16.1081 0
34 1 6.045 -15.3027 0
35 1 6.51 -16.1081 0
36 1 6.975 -15.3027 0
37 1 7.44 -16.1081 0
38 1 7.905 -15.3027 0
39 1 8.37 -16.1081 0
40 1 8.835 -15.3027 0
41 1 -9.3 -14.4973 0
42 1 -8.835 -13.6919 0
43 1 -8.37 -14.4973 0
44 1 -7.905 -13.6919 0
45 1 -7.44 -14.4973 0
46 1 -6.975 -13.6919 0
47 1 -6.51 -14.4973 0
48 1 -6.045 -13.6919 0
49 1 -5.58 -14.4973 0
50 1 -5.115 -13.6919 0
51 1 -4.65 -14.4973 0
52 1 -4.185 -13.6919 0
53 1 -3.72 -14.4973 0
54 1 -3.255 -13.6919 0
55 1 -2.79 -14.4973 0
56 1 -2.325 -13.6919 0
57 1 -1.86 -14.4973 0
58 1 -1.395 -13.6919 0
59 1 -0.93 -14.4973 0
60 1 -0.465 -13.6919 0
61 1 0 -14.4973 0
62 1 0.465 -13.6919 0
63 1 0.93 -14.4973 0
64 1 1.395 -13.6919 0
65 1 1.86 -14.4973 0
66 1 2.325 -13.6919 0
67 1 2.79 -14.4973 0
68 1 3.255 -13.6919 0
69 1 3.72 -14.4973 0
70 1 4.185 -13.6919 0
71 1 4.65 -14.4973 0
72 1 5.115 -13.6919 0
73 1 5.58 -14.4973 0
74 1 6.045 -13.6919 0
75 1 6.51 -14.4973 0
76 1 6.975 -13.6919 0
77 1 7.44 -14.4973 0
78 1 7.905 -13.6919 0
79 1 8.37 -14.4973 0
80 1 8.835 -13.6919 0
81 1 -9.3 -12.8865 0
82 1 -8.835 -12.0811 0
83 1 -8.37 -12.8865 0
84 1 -7.905 -12.0811 0
85 1 -7.44 -12.8865 0
86 1 -6.975 -12.0811 0
87 1 -6.51 -12.8865 0
88 1 -6.045 -12.0811 0
89 1 -5.58 -12.8865 0
90 1 -5.115 -12.0811 0
91 1 -4.65 -12.8865 0
92 1 -4.185 -12.0811 0
93 1 -3.72 -12.8865 0
94 1 -3.255 -12.0811 0
95 1 -2.79 -12.8865 0
96 1 -2.325 -12.0811 0
97 1 -1.86 -12.8865 0
98 1 -1.395 -12.0811 0
99 1 -0.93 -12.8865 0
100 1 -0.465 -12.0811 0
101 1 0 -12.8865 0
102 1 0.465 -12.0811 0
103 1 0.93 -12.8865 0
104 1 1.395 -12.0811 0
105 1 1.86 -12.8865 0
106 1 2.325 -12.0811 0
107 1 2.79 -12.8865 0
108 1 3.255 -12.0811 0
109 1 3.72 -12.8865 0
110 1 4.185 -12.0811 0
111 1 4.65 -12.8865 0
112 1 5.115 -12.0811 0
113 1 5.58 -12.8865 0
114 1 6.045 -12.0811 0
115 1 6.51 -12.8865 0
116 1 6.975 -12.0811 0
117 1 7.44 -12.8865 0
118 1 7.905 -12.0811 0
119 1 8.37 -12.8865 0
120 1 8.835 -12.0811 0
121 1 -9.3 -11.2757 0
123 1 -8.37 -11.2757 0
125 1 -7.44 -11.2757 0
127 1 -6.51 -11.2757 0
129 1 -5.58 -11.2757 0
131 1 -4.65 -11.2757 0
133 1 -3.72 -11.2757 0
135 1 -2.79 -11.2757 0
137 1 -1.86 -11.2757 0
139 1 -0.93 -11.2757 0
141 1 0 -11.2757 0
143 1 0.93 -11.2757 0
145 1 1.86 -11.2757 0
147 1 2.79 -11.2757 0
149 1 3.72 -11.2757 0
151 1 4.65 -11.2757 0
153 1 5.58 -11.2757 0
155 1 6.51 -11.2757 0
157 1 7.44 -11.2757 0
159 1 8.37 -11.2757 0
122 1 -8.835 -10.4702 0
161 1 -9.3 -9.66484 0
163 1 -8.37 -9.66484 0
124 1 -7.905 -10.4702 0
126 1 -6.975 -10.4702 0
165 1 -7.44 -9.66484 0
128 1 -6.045 -10.4702 0
167 1 -6.51 -9.66484 0
169 1 -5.58 -9.66484 0
130 1 -5.115 -10.4702 0
132 1 -4.185 -10.4702 0
171 1 -4.65 -9.66484 0
134 1 -3.255 -10.4702 0
173 1 -3.72 -9.66484 0
175 1 -2.79 -9.66484 0
136 1 -2.325 -10.4702 0
138 1 -1.395 -10.4702 0
177 1 -1.86 -9.66484 0
140 1 -0.465 -10.4702 0
179 1 -0.93 -9.66484 0
142 1 0.465 -10.4702 0
181 1 0 -9.66484 0
183 1 0.93 -9.66484 0
144 1 1.395 -10.4702 0
146 1 2.325 -10.4702 0
185 1 1.86 -9.66484 0
148 1 3.255 -10.4702 0
187 1 2.79 -9.66484 0
189 1 3.72 -9.66484 0
150 1 4.185 -10.4702 0
152 1 5.115 -10.4702 0
191 1 4.65 -9.66484 0
154 1 6.045 -10.4702 0
193 1 5.58 -9.66484 0
195 1 6.51 -9.66484 0
156 1 6.975 -10.4702 0
158 1 7.905 -10.4702 0
197 1 7.44 -9.66484 0
160 1 8.835 -10.4702 0
199 1 8.37 -9.66484 0
162 1 -8.835 -8.85944 0
164 1 -7.905 -8.85944 0
166 1 -6.975 -8.85944 0
168 1 -6.045 -8.85944 0
170 1 -5.115 -8.85944 0
172 1 -4.185 -8.85944 0
174 1 -3.255 -8.85944 0
176 1 -2.325 -8.85944 0
178 1 -1.395 -8.85944 0
180 1 -0.465 -8.85944 0
182 1 0.465 -8.85944 0
184 1 1.395 -8.85944 0
186 1 2.325 -8.85944 0
188 1 3.255 -8.85944 0
190 1 4.185 -8.85944 0
192 1 5.115 -8.85944 0
194 1 6.045 -8.85944 0
196 1 6.975 -8.85944 0
198 1 7.905 -8.85944 0
200 1 8.835 -8.85944 0
201 1 -9.3 -8.05404 0
202 1 -8.835 -7.24863 0
203 1 -8.37 -8.05404 0
204 1 -7.905 -7.24863 0
205 1 -7.44 -8.05404 0
206 1 -6.975 -7.24863 0
207 1 -6.51 -8.05404 0
208 1 -6.045 -7.24863 0
209 1 -5.58 -8.05404 0
210 1 -5.115 -7.24863 0
211 1 -4.65 -8.05404 0
212 1 -4.185 -7.24863 0
213 1 -3.72 -8.05404 0
214 1 -3.255 -7.24863 0
215 1 -2.79 -8.05404 0
216 1 -2.325 -7.24863 0
217 1 -1.86 -8.05404 0
218 1 -1.395 -7.24863 0
219 1 -0.93 -8.05404 0
220 1 -0.465 -7.24863 0
221 1 0 -8.05404 0
222 1 0.465 -7.24863 0
223 1 0.93 -8.05404 0
224 1 1.395 -7.24863 0
225 1 1.86 -8.05404 0
226 1 2.325 -7.24863 0
227 1 2.79 -8.05404 0
228 1 3.255 -7.24863 0
229 1 3.72 -8.05404 0
230 1 4.185 -7.24863 0
231 1 4.65 -8.05404 0
232 1 5.115 -7.24863 0
233 1 5.58 -8.05404 0
234 1 6.045 -7.24863 0
235 1 6.51 -8.05404 0
236 1 6.975 -7.24863 0
237 1 7.44 -8.05404 0
238 1 7.905 -7.24863 0
239 1 8.37 -8.05404 0
240 1 8.835 -7.24863 0
241 1 -9.3 -6.44323 0
242 1 -8.835 -5.63783 0
243 1 -8.37 -6.44323 0
244 1 -7.905 -5.63783 0
245 1 -7.44 -6.44323 0
246 1 -6.975 -5.63783 0
247 1 -6.51 -6.44323 0
248 1 -6.045 -5.63783 0
249 1 -5.58 -6.44323 0
250 1 -5.115 -5.63783 0
251 1 -4.65 -6.44323 0
252 1 -4.185 -5.63783 0
253 1 -3.72 -6.44323 0
254 1 -3.255 -5.63783 0
255 1 -2.79 -6.44323 0
256 1 -2.325 -5.63783 0
257 1 -1.86 -6.44323 0
258 1 -1.395 -5.63783 0
259 1 -0.93 -6.44323 0
260 1 -0.465 -5.63783 0
261 1 0 -6.44323 0
262 1 0.465 -5.63783 0
263 1 0.93 -6.44323 0
264 1 1.395 -5.63783 0
265 1 1.86 -6.44323 0
266 1 2.325 -5.63783 0
267 1 2.79 -6.44323 0
268 1 3.255 -5.63783 0
269 1 3.72 -6.44323 0
270 1 4.185 -5.63783 0
271 1 4.65 -6.44323 0
272 1 5.115 -5.63783 0
273 1 5.58 -6.44323 0
274 1 6.045 -5.63783 0
275 1 6.51 -6.44323 0
276 1 6.975 -5.63783 0
277 1 7.44 -6.44323 0
278 1 7.905 -5.63783 0
279 1 8.37 -6.44323 0
280 1 8.835 -5.63783 0
281 1 -9.3 -4.83242 0
283 1 -8.37 -4.83242 0
285 1 -7.44 -4.83242 0
287 1 -6.51 -4.83242 0
289 1 -5.58 -4.83242 0
291 1 -4.65 -4.83242 0
293 1 -3.72 -4.83242 0
295 1 -2.79 -4.83242 0
297 1 -1.86 -4.83242 0
299 1 -0.93 -4.83242 0
301 1 0 -4.83242 0
303 1 0.93 -4.83242 0
305 1 1.86 -4.83242 0
307 1 2.79 -4.83242 0
309 1 3.72 -4.83242 0
311 1 4.65 -4.83242 0
313 1 5.58 -4.83242 0
315 1 6.51 -4.83242 0
317 1 7.44 -4.83242 0
319 1 8.37 -4.83242 0
282 1 -8.835 -4.02702 0
321 1 -9.3 -3.22161 0
323 1 -8.37 -3.22161 0
284 1 -7.905 -4.02702 0
286 1 -6.975 -4.02702 0
325 1 -7.44 -3.22161 0
288 1 -6.045 -4.02702 0
327 1 -6.51 -3.22161 0
329 1 -5.58 -3.22161 0
290 1 -5.115 -4.02702 0
292 1 -4.185 -4.02702 0
331 1 -4.65 -3.22161 0
294 1 -3.255 -4.02702 0
333 1 -3.72 -3.22161 0
335 1 -2.79 -3.22161 0
296 1 -2.325 -4.02702 0
298 1 -1.395 -4.02702 0
337 1 -1.86 -3.22161 0
300 1 -0.465 -4.02702 0
339 1 -0.93 -3.22161 0
302 1 0.465 -4.02702 0
341 1 0 -3.22161 0
343 1 0.93 -3.22161 0
304 1 1.395 -4.02702 0
306 1 2.325 -4.02702 0
345 1 1.86 -3.22161 0
308 1 3.255 -4.02702 0
347 1 2.79 -3.22161 0
349 1 3.72 -3.22161 0
310 1 4.185 -4.02702 0
312 1 5.115 -4.02702 0
351 1 4.65 -3.22161 0
314 1 6.045 -4.02702 0
353 1 5.58 -3.22161 0
355 1 6.51 -3.22161 0
316 1 6.975 -4.02702 0
318 1 7.905 -4.02702 0
357 1 7.44 -3.22161 0
320 1 8.835 -4.02702 0
359 1 8.37 -3.22161 0
322 1 -8.835 -2.41621 0
361 1 -9.3 -1.61081 0
363 1 -8.37 -1.61081 0
324 1 -7.905 -2.41621 0
326 1 -6.975 -2.41621 0
365 1 -7.44 -1.61081 0
328 1 -6.045 -2.41621 0
367 1 -6.51 -1.61081 0
369 1 -5.58 -1.61081 0
330 1 -5.115 -2.41621 0
332 1 -4.185 -2.41621 0
371 1 -4.65 -1.61081 0
334 1 -3.255 -2.41621 0
373 1 -3.72 -1.61081 0
375 1 -2.79 -1.61081 0
336 1 -2.325 -2.41621 0
338 1 -1.395 -2.41621 0
377 1 -1.86 -1.61081 0
340 1 -0.465 -2.41621 0
379 1 -0.93 -1.61081 0
342 1 0.465 -2.41621 0
381 1 0 -1.61081 0
383 1 0.93 -1.61081 0
344 1 1.395 -2.41621 0
346 1 2.325 -2.41621 0
385 1 1.86 -1.61081 0
348 1 3.255 -2.41621 0
387 1 2.79 -1.61081 0
389 1 3.72 -1.61081 0
350 1 4.185 -2.41621 0
352 1 5.115 -2.41621 0
391 1 4.65 -1.61081 0
354 1 6.045 -2.41621 0
393 1 5.58 -1.61081 0
395 1 6.51 -1.61081 0
356 1 6.975 -2.41621 0
358 1 7.905 -2.41621 0
397 1 7.44 -1.61081 0
360 1 8.835 -2.41621 0
399 1 8.37 -1.61081 0
362 1 -8.835 -0.805404 0
364 1 -7.905 -0.805404 0
366 1 -6.975 -0.805404 0
368 1 -6.045 -0.805404 0
370 1 -5.115 -0.805404 0
372 1 -4.185 -0.805404 0
374 1 -3.255 -0.805404 0
376 1 -2.325 -0.805404 0
378 1 -1.395 -0.805404 0
380 1 -0.465 -0.805404 0
382 1 0.465 -0.805404 0
384 1 1.395 -0.805404 0
386 1 2.325 -0.805404 0
388 1 3.255 -0.805404 0
390 1 4.185 -0.805404 0
392 1 5.115 -0.805404 0
394 1 6.045 -0.805404 0
396 1 6.975 -0.805404 0
398 1 7.905 -0.805404 0
400 1 8.835 -0.805404 0
401 2 -9.3 0 0
402 2 -8.835 0.805404 0
403 2 -8.37 0 0
404 2 -7.905 0.805404 0
405 2 -7.44 0 0
406 2 -6.975 0.805404 0
407 2 -6.51 0 0
408 2 -6.045 0.805404 0
409 2 -5.58 0 0
410 2 -5.115 0.805404 0
411 2 -4.65 0 0
412 2 -4.185 0.805404 0
413 2 -3.72 0 0
414 2 -3.255 0.805404 0
415 2 -2.79 0 0
416 2 -2.325 0.805404 0
417 2 -1.86 0 0
418 2 -1.395 0.805404 0
419 2 -0.93 0 0
420 2 -0.465 0.805404 0
421 2 0 0 0
422 2 0.465 0.805404 0
423 2 0.93 0 0
424 2 1.395 0.805404 0
425 2 1.86 0 0
426 2 2.325 0.805404 0
427 2 2.79 0 0
428 2 3.255 0.805404 0
429 2 3.72 0 0
430 2 4.185 0.805404 0
431 2 4.65 0 0
432 2 5.115 0.805404 0
433 2 5.58 0 0
434 2 6.045 0.805404 0
435 2 6.51 0 0
436 2 6.975 0.805404 0
437 2 7.44 0 0
438 2 7.905 0.805404 0
439 2 8.37 0 0
440 2 8.835 0.805404 0
441 2 -9.3 1.61081 0
442 2 -8.835 2.41621 0
443 2 -8.37 1.61081 0
444 2 -7.905 2.41621 0
445 2 -7.44 1.61081 0
446 2 -6.975 2.41621 0
447 2 -6.51 1.61081 0
448 2 -6.045 2.41621 0
449 2 -5.58 1.61081 0
450 2 -5.115 2.41621 0
451 2 -4.65 1.61081 0
452 2 -4.185 2.41621 0
453 2 -3.72 1.61081 0
454 2 -3.255 2.41621 0
455 2 -2.79 1.61081 0
456 2 -2.325 2.41621 0
457 2 -1.86 1.61081 0
458 2 -1.395 2.41621 0
459 2 -0.93 1.61081 0
460 2 -0.465 2.41621 0
461 2 0 1.61081 0
462 2 0.465 2.41621 0
463 2 0.93 1.61081 0
464 2 1.395 2.41621 0
465 2 1.86 1.61081 0
466 2 2.325 2.41621 0
467 2 2.79 1.61081 0
468 2 3.255 2.41621 0
469 2 3.72 1.61081 0
470 2 4.185 2.41621 0
471 2 4.65 1.61081 0
472 2 5.115 2.41621 0
473 2 5.58 1.61081 0
474 2 6.045 2.41621 0
475 2 6.51 1.61081 0
476 2 6.975 2.41621 0
477 2 7.44 1.61081 0
478 2 7.905 2.41621 0
479 2 8.37 1.61081 0
480 2 8.835 2.41621 0
481 2 -9.3 3.22161 0
483 2 -8.37 3.22161 0
485 2 -7.44 3.22161 0
487 2 -6.51 3.22161 0
489 2 -5.58 3.22161 0
491 2 -4.65 3.22161 0
493 2 -3.72 3.22161 0
495 2 -2.79 3.22161 0
497 2 -1.86 3.22161 0
499 2 -0.93 3.22161 0
501 2 0 3.22161 0
503 2 0.93 3.22161 0
505 2 1.86 3.22161 0
507 2 2.79 3.22161 0
509 2 3.72 3.22161 0
511 2 4.65 3.22161 0
513 2 5.58 3.22161 0
515 2 6.51 3.22161 0
517 2 7.44 3.22161 0
519 2 8.37 3.22161 0
482 2 -8.835 4.02702 0
521 2 -9.3 4.83242 0
523 2 -8.37 4.83242 0
484 2 -7.905 4.02702 0
486 2 -6.975 4.02702 0
525 2 -7.44 4.83242 0
488 2 -6.045 4.02702 0
527 2 -6.51 4.83242 0
529 2 -5.58 4.83242 0
490 2 -5.115 4.02702 0
492 2 -4.185 4.02702 0
531 2 -4.65 4.83242 0
494 2 -3.255 4.02702 0
533 2 -3.72 4.83242 0
535 2 -2.79 4.83242 0
496 2 -2.325 4.02702 0
498 2 -1.395 4.02702 0
537 2 -1.86 4.83242 0
500 2 -0.465 4.02702 0
539 2 -0.93 4.83242 0
502 2 0.465 4.02702 0
541 2 0 4.83242 0
543 2 0.93 4.83242 0
504 2 1.395 4.02702 0
506 2 2.325 4.02702 0
545 2 1.86 4.83242 0
508 2 3.255 4.02702 0
547 2 2.79 4.83242 0
549 2 3.72 4.83242 0
510 2 4.185 4.02702 0
512 2 5.115 4.02702 0
551 2 4.65 4.83242 0
514 2 6.045 4.02702 0
553 2 5.58 4.83242 0
555 2 6.51 4.83242 0
516 2 6.975 4.02702 0
518 2 7.905 4.02702 0
557 2 7.44 4.83242 0
520 2 8.835 4.02702 0
559 2 8.37 4.83242 0
522 2 -8.835 5.63783 0
561 2 -9.3 6.44323 0
563 2 -8.37 6.44323 0
524 2 -7.905 5.63783 0
526 2 -6.975 5.63783 0
565 2 -7.44 6.44323 0
528 2 -6.045 5.63783 0
567 2 -6.51 6.44323 0
569 2 -5.58 6.44323 0
530 2 -5.115 5.63783 0
532 2 -4.185 5.63783 0
571 2 -4.65 6.44323 0
534 2 -3.255 5.63783 0
573 2 -3.72 6.44323 0
575 2 -2.79 6.44323 0
536 2 -2.325 5.63783 0
538 2 -1.395 5.63783 0
577 2 -1.86 6.44323 0
540 2 -0.465 5.63783 0
579 2 -0.93 6.44323 0
542 2 0.465 5.63783 0
581 2 0 6.44323 0
583 2 0.93 6.44323 0
544 2 1.395 5.63783 0
546 2 2.325 5.63783 0
585 2 1.86 6.44323 0
548 2 3.255 5.63783 0
587 2 2.79 6.44323 0
589 2 3.72 6.44323 0
550 2 4.185 5.63783 0
552 2 5.115 5.63783 0
591 2 4.65 6.44323 0
554 2 6.045 5.63783 0
593 2 5.58 6.44323 0
595 2 6.51 6.44323 0
556 2 6.975 5.63783 0
558 2 7.905 5.63783 0
597 2 7.44 6.44323 0
560 2 8.835 5.63783 0
599 2 8.37 6.44323 0
562 2 -8.835 7.24863 0
564 2 -7.905 7.24863 0
566 2 -6.975 7.24863 0
568 2 -6.045 7.24863 0
570 2 -5.115 7.24863 0
572 2 -4.185 7.24863 0
574 2 -3.255 7.24863 0
576 2 -2.325 7.24863 0
578 2 -1.395 7.24863 0
580 2 -0.465 7.24863 0
582 2 0.465 7.24863 0
584 2 1.395 7.24863 0
586 2 2.325 7.24863 0
588 2 3.255 7.24863 0
590 2 4.185 7.24863 0
592 2 5.115 7.24863 0
594 2 6.045 7.24863 0
596 2 6.975 7.24863 0
598 2 7.905 7.24863 0
600 2 8.835 7.24863 0
601 2 -9.3 8.05404 0
602 2 -8.835 8.85944 0
603 2 -8.37 8.05404 0
604 2 -7.905 8.85944 0
605 2 -7.44 8.05404 0
606 2 -6.975 8.85944 0
607 2 -6.51 8.05404 0
608 2 -6.045 8.85944 0
609 2 -5.58 8.05404 0
610 2 -5.115 8.85944 0
611 2 -4.65 8.05404 0
612 2 -4.185 8.85944 0
613 2 -3.72 8.05404 0
614 2 -3.255 8.85944 0
615 2 -2.79 8.05404 0
616 2 -2.325 8.85944 0
617 2 -1.86 8.05404 0
618 2 -1.395 8.85944 0
619 2 -0.93 8.05404 0
620 2 -0.465 8.85944 0
621 2 0 8.05404 0
622 2 0.465 8.85944 0
623 2 0.93 8.05404 0
624 2 1.395 8.85944 0
625 2 1.86 8.05404 0
626 2 2.325 8.85944 0
627 2 2.79 8.05404 0
628 2 3.255 8.85944 0
629 2 3.72 8.05404 0
630 2 4.185 8.85944 0
631 2 4.65 8.05404 0
632 2 5.115 8.85944 0
633 2 5.58 8.05404 0
634 2 6.045 8.85944 0
635 2 6.51 8.05404 0
636 2 6.975 8.85944 0
637 2 7.44 8.05404 0
638 2 7.905 8.85944 0
639 2 8.37 8.05404 0
640 2 8.835 8.85944 0
641 2 -9.3 9.66484 0
642 2 -8.835 10.4702 0
643 2 -8.37 9.66484 0
644 2 -7.905 10.4702 0
645 2 -7.44 9.66484 0
646 2 -6.975 10.4702 0
647 2 -6.51 9.66484 0
648 2 -6.045 10.4702 0
649 2 -5.58 9.66484 0
650 2 -5.115 10.4702 0
651 2 -4.65 9.66484 0
652 2 -4.185 10.4702 0
653 2 -3.72 9.66484 0
654 2 -3.255 10.4702 0
655 2 -2.79 9.66484 0
656 2 -2.325 10.4702 0
657 2 -1.86 9.66484 0
658 2 -1.395 10.4702 0
659 2 -0.93 9.66484 0
660 2 -0.465 10.4702 0
661 2 0 9.66484 0
662 2 0.465 10.4702 0
663 2 0.93 9.66484 0
664 2 1.395 10.4702 0
665 2 1.86 9.66484 0
666 2 2.325 10.4702 0
667 2 2.79 9.66484 0
668 2 3.255 10.4702 0
669 2 3.72 9.66484 0
670 2 4.185 10.4702 0
671 2 4.65 9.66484 0
672 2 5.115 10.4702 0
673 2 5.58 9.66484 0
674 2 6.045 10.4702 0
675 2 6.51 9.66484 0
676 2 6.975 10.4702 0
677 2 7.44 9.66484 0
678 2 7.905 10.4702 0
679 2 8.37 9.66484 0
680 2 8.835 10.4702 0
681 2 -9.3 11.2757 0
683 2 -8.37 11.2757 0
685 2 -7.44 11.2757 0
687 2 -6.51 11.2757 0
689 2 -5.58 11.2757 0
691 2 -4.65 11.2757 0
693 2 -3.72 11.2757 0
695 2 -2.79 11.2757 0
697 2 -1.86 11.2757 0
699 2 -0.93 11.2757 0
701 2 0 11.2757 0
703 2 0.93 11.2757 0
705 2 1.86 11.2757 0
707 2 2.79 11.2757 0
709 2 3.72 11.2757 0
711 2 4.65 11.2757 0
713 2 5.58 11.2757 0
715 2 6.51 11.2757 0
717 2 7.44 11.2757 0
719 2 8.37 11.2757 0
682 2 -8.835 12.0811 0
721 2 -9.3 12.8865 0
723 2 -8.37 12.8865 0
684 2 -7.905 12.0811 0
686 2 -6.975 12.0811 0
725 2 -7.44 12.8865 0
688 2 -6.045 12.0811 0
727 2 -6.51 12.8865 0
729 2 -5.58 12.8865 0
690 2 -5.115 12.0811 0
692 2 -4.185 12.0811 0
731 2 -4.65 12.8865 0
694 2 -3.255 12.0811 0
733 2 -3.72 12.8865 0
735 2 -2.79 12.8865 0
696 2 -2.325 12.0811 0
698 2 -1.395 12.0811 0
737 2 -1.86 12.8865 0
700 2 -0.465 12.0811 0
739 2 -0.93 12.8865 0
702 2 0.465 12.0811 0
741 2 0 12.8865 0
743 2 0.93 12.8865 0
704 2 1.395 12.0811 0
706 2 2.325 12.0811 0
745 2 1.86 12.8865 0
708 2 3.255 12.0811 0
747 2 2.79 12.8865 0
749 2 3.72 12.8865 0
710 2 4.185 12.0811 0
712 2 5.115 12.0811 0
751 2 4.65 12.8865 0
714 2 6.045 12.0811 0
753 2 5.58 12.8865 0
755 2 6.51 12.8865 0
716 2 6.975 12.0811 0
718 2 7.905 12.0811 0
757 2 7.44 12.8865 0
720 2 8.835 12.0811 0
759 2 8.37 12.8865 0
722 2 -8.835 13.6919 0
761 2 -9.3 14.4973 0
763 2 -8.37 14.4973 0
724 2 -7.905 13.6919 0
726 2 -6.975 13.6919 0
765 2 -7.44 14.4973 0
728 2 -6.045 13.6919 0
767 2 -6.51 14.4973 0
769 2 -5.58 14.4973 0
730 2 -5.115 13.6919 0
732 2 -4.185 13.6919 0
771 2 -4.65 14.4973 0
734 2 -3.255 13.6919 0
773 2 -3.72 14.4973 0
775 2 -2.79 14.4973 0
736 2 -2.325 13.6919 0
738 2 -1.395 13.6919 0
777 2 -1.86 14.4973 0
740 2 -0.465 13.6919 0
779 2 -0.93 14.4973 0
742 2 0.465 13.6919 0
781 2 0 14.4973 0
783 2 0.93 14.4973 0
744 2 1.395 13.6919 0
746 2 2.325 13.6919 0
785 2 1.86 14.4973 0
748 2 3.255 13.6919 0
787 2 2.79 14.4973 0
789 2 3.72 14.4973 0
750 2 4.185 13.6919 0
752 2 5.115 13.6919 0
791 2 4.65 14.4973 0
754 2 6.045 13.6919 0
793 2 5.58 14.4973 0
795 2 6.51 14.4973 0
756 2 6.975 13.6919 0
758 2 7.905 13.6919 0
797 2 7.44 14.4973 0
760 2 8.835 13.6919 0
799 2 8.37 14.4973 0
762 2 -8.835 15.3027 0
764 2 -7.905 15.3027 0
766 2 -6.975 15.3027 0
768 2 -6.045 15.3027 0
770 2 -5.115 15.3027 0
772 2 -4.185 15.3027 0
774 2 -3.255 15.3027 0
776 2 -2.325 15.3027 0
778 2 -1.395 15.3027 0
780 2 -0.465 15.3027 0
782 2 0.465 15.3027 0
784 2 1.395 15.3027 0
786 2 2.325 15.3027 0
788 2 3.255 15.3027 0
790 2 4.185 15.3027 0
792 2 5.115 15.3027 0
794 2 6.045 15.3027 0
796 2 6.975 15.3027 0
798 2 7.905 15.3027 0
800 2 8.835 15.3027 0
ITEM: TIMESTEP
100
ITEM: NUMBER OF ATOMS
800
ITEM: BOX BOUNDS pp pp pp
-9.2999999999999989e+00 9.2999999999999989e+00
-1.6108072510390596e+01 1.6108072510390596e+01
-2.7899999999999995e+01 2.7899999999999995e+01
ITEM: ATOMS id type x y z
400 1 9.00748 -0.799329 -0.0969178
439 2 8.33686 -0.120709 0.00811142
431 2 4.66561 -0.211094 0.0912329
429 2 3.74232 -0.0109529 -0.283217
3 1 -8.41587 -16.1216 -0.0925581
417 2 -1.81868 -0.147392 -0.333167
4 1 -7.96579 -15.3275 -0.0777237
411 2 -4.648 -0.0287634 0.00185309
5 1 -7.48834 -16.0778 -0.121695
405 2 -7.57124 -0.0425499 -0.0186998
401 2 -9.38268 -0.0221156 -0.167951
390 1 4.28147 -1.05379 -0.0967067
8 1 -6.10155 -15.2206 -0.0996951
398 1 8.03391 -0.945188 -0.183219
11 1 -4.57748 -16.0557 -0.215518
382 1 0.548977 -0.922406 -0.0124155
12 1 -4.47635 -15.0198 -0.156206
13 1 -3.79063 -15.8238 -0.339866
376 1 -2.24496 -0.944482 -0.196481
14 1 -3.32003 -15.0089 -0.312774
372 1 -4.05084 -0.743039 -0.0517922
15 1 -2.81976 -15.9193 -0.418222
16 1 -2.2808 -15.2333 -0.257404
17 1 -1.80393 -16.0753 0.042449
364 1 -7.71577 -1.10468 -0.174559
362 1 -8.53195 -0.769842 -0.158365
399 1 8.44844 -1.69106 -0.0149261
396 1 7.26177 -0.654266 -0.0441895
26 1 2.48455 -15.3847 0.122133
28 1 3.40091 -15.2209 -0.0427159
29 1 3.5759 -16.1415 0.0391604
38 1 7.90389 -15.2401 0.031185
392 1 5.30879 -1.00344 -0.0476649
40 1 8.72753 -15.2765 -0.0600074
391 1 4.73858 -1.83257 -0.00991788
41 1 9.301 -14.3905 0.0424595
43 1 -8.52358 -14.5791 -0.134552
389 1 3.76195 -1.66298 0.220335
45 1 -7.60836 -14.6206 0.0632593
47 1 -6.61653 -14.3804 -0.0220395
49 1 -5.62748 -14.5295 0.137849
51 1 -4.69588 -14.1144 -0.113928
52 1 -3.92229 -13.4494 -0.136782
53 1 -3.8107 -14.4162 -0.489514
54 1 -3.14736 -13.7248 -0.18678
342 1 0.502108 -2.5368 -0.0586602
379 1 -0.728899 -1.54669 -0.0729859
340 1 -0.563268 -2.56878 -0.249096
377 1 -1.53948 -1.69797 -0.184225
338 1 -1.36066 -2.44571 0.0455032
336 1 -2.38197 -2.09345 -0.183009
375 1 -2.93677 -1.47458 -0.227128
55 1 -2.66598 -14.4928 -0.337316
334 1 -3.22656 -2.3463 -0.00912865
56 1 -2.16303 -13.5437 -0.271188
57 1 -1.67334 -14.263 -0.268637
58 1 -1.21965 -13.337 -0.0813632
66 1 2.46941 -13.6372 0.0569681
67 1 2.9989 -14.4869 -0.158847
73 1 5.78047 -14.2189 0.38709
76 1 6.95884 -13.6993 -0.116641
77 1 7.41358 -14.6232 -0.0993241
78 1 7.82687 -13.7735 -0.204736
363 1 -8.43118 -1.76792 -0.136115
361 1 -9.22181 -1.4118 -0.115315
322 1 -9.13333 -2.27819 -0.177415
79 1 8.40236 -14.3504 0.0212988
80 1 8.63591 -13.447 -0.111518
83 1 -8.25701 -13.1303 -0.0375565
84 1 -7.9913 -12.2047 -0.0236976
88 1 -6.0593 -12.0407 0.147577
355 1 6.54899 -3.30055 0.0801018
353 1 5.28118 -3.17712 0.0313502
98 1 -1.27854 -12.2278 0.186902
100 1 -0.507234 -12.2124 -0.0605034
312 1 4.96878 -4.12561 0.0543252
101 1 0.133629 -12.8729 0.0329644
102 1 0.380803 -12.0884 0.152362
347 1 2.97691 -3.12773 -0.104456
308 1 3.27335 -4.0128 0.0406616
345 1 2.11734 -3.09747 0.0101801
306 1 2.354 -3.97973 -0.171727
107 1 2.9537 -12.7811 0.168326
343 1 1.0917 -3.20834 0.0723878
341 1 0.1742 -3.33074 0.0629083
109 1 3.84299 -12.6955 -0.0372157
110 1 4.05166 -11.7175 -0.150321
111 1 4.70126 -12.6483 -0.107581
112 1 4.98092 -11.8565 -0.279416
113 1 5.54698 -12.6862 -0.289295
115 1 6.49149 -12.9337 -0.0709522
116 1 6.94373 -12.192 -0.187525
117 1 7.49199 -12.9659 -0.233165
118 1 7.78845 -12.0087 -0.0651902
121 1 -9.41806 -11.0237 0.0232798
123 1 -8.48903 -10.9511 -0.089448
290 1 -5.1535 -4.03351 0.00427946
131 1 -4.60141 -11.37 0.021463
327 1 -6.64811 -3.34528 0.0657069
288 1 -6.05576 -4.04802 -0.164064
325 1 -7.47206 -3.05042 0.055534
286 1 -7.30366 -3.98213 -0.29024
284 1 -8.08439 -3.6113 -0.113058
133 1 -3.67629 -11.3289 -0.0669487
321 1 9.28606 -3.45378 0.139768
135 1 -2.60929 -11.1555 0.0343229
137 1 -1.82064 -11.445 -0.0388578
147 1 2.68147 -11.4573 0.174737
151 1 4.82098 -11.0649 -0.181675
153 1 5.79049 -11.2463 -0.274993
311 1 4.75689 -4.95776 -0.201752
309 1 3.8496 -4.84773 -0.120295
307 1 2.83295 -4.92889 -0.237227
305 1 1.74274 -4.72648 -0.0853259
155 1 6.60941 -11.3169 -0.188104
163 1 -8.27176 -9.69483 -0.116108
124 1 -7.87104 -10.3543 -0.23568
126 1 -7.09888 -10.4353 -0.293278
165 1 -7.32306 -9.45361 -0.277779
167 1 -6.45546 -9.70487 -0.253045
291 1 -4.72995 -4.78606 0.0568709
289 1 -5.66031 -4.86776 -0.172899
287 1 -6.58519 -4.6171 -0.287586
285 1 -7.80194 -4.54288 -0.0477716
169 1 -5.5201 -9.5076 -0.126721
130 1 -5.08601 -10.4092 -0.136991
132 1 -4.178 -10.5527 -0.266563
171 1 -4.645 -9.70082 -0.128252
278 1 7.70212 -5.61973 -0.206433
277 1 7.21181 -6.18722 -0.0916295
276 1 7.04724 -5.24367 -0.0145617
275 1 6.39216 -6.46839 -0.203586
274 1 6.30127 -5.58217 -0.186481
273 1 5.55572 -6.50874 -0.355927
272 1 5.40903 -5.65554 -0.195741
271 1 4.76632 -6.33335 -0.249048
270 1 4.30861 -5.71013 -0.153379
269 1 3.87629 -6.59848 -0.0717445
268 1 3.43117 -5.68581 -0.0534913
136 1 -2.44946 -10.4306 0.105797
179 1 -0.924784 -9.74708 0.0708984
181 1 0.146684 -9.80375 0.0376761
144 1 1.03207 -10.5661 -0.0514947
187 1 2.7619 -9.75271 0.0191412
189 1 3.64261 -9.82807 0.168638
261 1 -0.331746 -6.57508 -0.194761
152 1 5.32392 -10.435 -0.243422
259 1 -1.25746 -6.41009 -0.266936
191 1 4.73026 -9.65136 -0.146404
257 1 -2.1346 -6.22009 -0.173627
154 1 6.25607 -10.4647 -0.27336
193 1 5.67969 -9.73429 -0.226564
195 1 6.4937 -9.58096 -0.199767
158 1 7.96223 -10.7113 0.153759
164 1 -7.92751 -8.84271 -0.284819
168 1 -6.10122 -8.75171 -0.081426
170 1 -4.96503 -8.84632 -0.0659237
172 1 -4.00628 -8.89154 -0.103034
174 1 -3.11196 -8.97355 -0.154053
176 1 -2.25903 -9.07505 -0.199342
180 1 -0.524383 -8.78038 -0.105689
245 1 -7.51324 -6.43305 0.000197879
244 1 -7.81244 -5.61618 0.165279
182 1 0.41424 -8.81572 -0.112706
188 1 3.28893 -9.04561 -0.109655
192 1 5.15919 -8.92486 -0.0895167
240 1 8.67607 -7.46871 -0.0936769
239 1 8.10684 -7.99248 -0.188164
238 1 7.81297 -7.01274 -0.277032
201 1 -9.17439 -8.04987 -0.0624864
202 1 -8.77661 -7.24864 -0.00871029
203 1 -8.14616 -7.92086 -0.0957601
234 1 6.09487 -7.3588 -0.180675
233 1 5.38085 -7.90162 -0.0051201
232 1 5.01973 -7.11722 -0.158313
231 1 4.60615 -8.18253 -0.148427
230 1 4.18751 -7.46516 -0.228566
229 1 3.52581 -8.12623 -0.155411
228 1 3.17132 -7.15595 -0.0371171
227 1 2.65074 -8.182 0.110689
206 1 -6.67598 -6.98051 -0.0441331
213 1 -3.72317 -8.03088 -0.0434675
214 1 -3.20145 -7.19512 0.0490334
215 1 -2.77604 -8.06643 -0.242541
222 1 0.416705 -7.05069 -0.0415513
221 1 0.0233575 -7.9458 -0.352952
220 1 -0.714396 -7.38277 -0.306682
219 1 -1.1176 -8.15352 -0.297048
218 1 -1.62074 -7.26902 -0.210359
217 1 -2.00587 -8.11344 -0.236252
216 1 -2.43622 -7.09139 -0.201908
423 2 0.825952 0.0417872 0.0262169
2 1 -9.06204 -15.3447 -0.0235322
413 2 -3.74438 0.0181711 -0.00227574
409 2 -5.49637 0.0465487 0.239519
388 1 3.34335 -0.865116 -0.189583
6 1 -7.02233 -15.2536 -0.119162
7 1 -6.45006 -16.0434 -0.0391503
386 1 2.39868 -0.679194 0.0324598
384 1 1.40064 -0.742895 0.145119
10 1 -5.23463 -15.3564 -0.0851117
380 1 -0.325868 -0.800985 -0.000914099
378 1 -1.33073 -0.9205 -0.0963217
374 1 -3.14259 -0.692156 -0.0176188
370 1 -4.89874 -1.05757 0.242942
368 1 -5.83936 -0.912997 0.349491
366 1 -6.84436 -0.7111 0.0381806
360 1 8.70592 -2.46334 0.109831
18 1 -1.41084 -15.0454 0.126182
397 1 7.48729 -1.62162 -0.0230357
20 1 -0.599257 -15.4197 0.484134
21 1 0.0968151 -16.09 0.37929
22 1 0.509099 -15.3121 0.500671
23 1 0.962146 -16.022 0.450183
24 1 1.57592 -15.113 0.265969
25 1 1.8386 -15.9688 0.532627
358 1 7.8482 -2.35476 0.238969
394 1 6.34844 -0.702211 0.124619
356 1 6.71543 -2.38515 0.20888
395 1 6.71152 -1.47942 0.206721
30 1 4.24181 -15.2181 0.0757698
31 1 4.45216 -16.1892 0.0779946
32 1 5.13524 -15.4226 0.148227
33 1 5.418 -16.0403 0.188612
34 1 5.87497 -15.0592 0.366826
35 1 6.34543 -15.9069 0.315038
36 1 6.71944 -15.1484 0.276405
37 1 7.29888 -15.8966 -0.0292398
393 1 5.86751 -1.65798 0.280608
354 1 5.94414 -2.74224 0.190404
352 1 5.42487 -2.25735 0.00504792
350 1 4.33134 -2.47068 0.0245499
42 1 -9.06388 -13.6488 0.0121646
387 1 2.8189 -1.49006 0.0145865
44 1 -8.20221 -13.8725 0.125504
348 1 3.40965 -2.41951 0.11409
46 1 -7.27998 -13.6997 -0.193096
385 1 1.81343 -1.4979 0.190964
48 1 -6.30251 -13.7189 0.000835822
346 1 2.41671 -2.29364 0.212731
50 1 -5.42181 -13.631 -0.05543
344 1 1.51942 -2.39014 -0.052398
383 1 1.05509 -1.69567 0.00947941
381 1 0.147118 -1.78161 -0.103412
373 1 -3.71255 -1.6421 0.00212877
371 1 -4.46335 -1.64783 0.396544
332 1 -4.02246 -2.55415 0.0950907
330 1 -5.02108 -2.26898 0.18726
369 1 -5.63194 -1.78633 0.644097
59 1 -0.915397 -14.3559 0.169867
60 1 -0.345675 -13.69 0.118765
61 1 -0.0927693 -14.7149 0.300794
62 1 0.422162 -13.7602 0.345707
63 1 0.85269 -14.5074 0.35339
64 1 1.38429 -13.9643 0.212404
65 1 2.16309 -14.443 0.176816
367 1 -6.41177 -1.47778 0.317704
328 1 -6.11212 -2.42853 0.322046
68 1 3.22204 -13.4771 -0.0894519
69 1 3.8814 -14.3697 -0.0563835
70 1 4.10644 -13.6387 -0.0768056
71 1 4.79157 -14.464 0.19733
72 1 4.92339 -13.5073 0.0184416
365 1 -7.37421 -1.73636 0.347186
74 1 5.7763 -13.5074 -0.103583
75 1 6.4504 -14.4718 -0.0522967
326 1 -6.8376 -2.38672 0.00717489
324 1 -8.01783 -2.36571 0.0569839
359 1 8.50105 -3.19182 0.204444
320 1 8.8883 -4.33424 0.258498
357 1 7.47237 -3.03944 0.320744
81 1 -9.0058 -12.7199 0.176671
82 1 -8.87751 -11.7482 -0.00581664
318 1 8.13617 -3.9236 0.389754
316 1 7.2431 -3.77781 0.12164
85 1 -7.32974 -12.9455 0.163216
86 1 -7.05456 -12.0818 0.202752
87 1 -6.56461 -12.8864 -0.00173772
314 1 5.82608 -3.80275 -0.0497914
89 1 -5.66974 -12.9217 0.0998523
90 1 -5.14881 -12.2163 0.235374
91 1 -4.69504 -13.0995 0.161175
92 1 -4.37546 -12.2012 0.054716
93 1 -3.68619 -12.6845 0.0636288
94 1 -3.3244 -12.0269 0.142779
95 1 -2.85453 -12.8734 0.0250477
96 1 -2.36331 -12.0641 0.0999661
97 1 -1.88374 -12.6854 -0.05754
351 1 4.54981 -3.37151 0.023807
99 1 -0.721431 -12.9521 0.334877
310 1 4.08039 -4.05348 0.00675486
349 1 3.77958 -3.2744 0.223691
304 1 1.50461 -3.8882 -0.0343629
103 1 1.03914 -13.1804 0.0357402
104 1 1.12948 -12.3081 0.184986
105 1 1.77092 -13.1059 0.279273
106 1 2.17394 -12.3813 0.121782
302 1 0.626337 -4.07285 0.0415114
108 1 3.2053 -11.9801 -0.0814965
339 1 -0.834407 -3.32029 0.124674
300 1 -0.345913 -4.02353 0.503515
337 1 -1.82957 -3.00135 0.127812
298 1 -1.29946 -4.03114 0.425598
296 1 -2.3194 -3.90716 0.1837
114 1 6.01884 -12.1096 -0.0949077
335 1 -2.63119 -3.07075 0.0388702
333 1 -3.60209 -3.39724 0.0362043
294 1 -3.21622 -4.1074 0.145293
331 1 -4.76311 -3.07273 0.0733028
119 1 8.35603 -12.6702 -0.114071
120 1 8.92217 -12.1096 -0.00988091
292 1 -4.3471 -3.84113 0.0264666
329 1 -5.68889 -3.12529 0.183799
125 1 -7.64822 -11.2952 -0.0831264
127 1 -6.64091 -11.2776 -0.102291
129 1 -5.59243 -11.2355 0.104969
323 1 -8.63123 -2.9291 -0.0374233
282 1 -8.6985 -4.17045 0.140946
319 1 8.29973 -4.94948 0.0161526
317 1 7.57995 -4.55844 0.00564084
139 1 -1.01191 -11.3731 -0.0538313
141 1 -0.149312 -11.4312 0.138331
143 1 1.02511 -11.4088 0.222401
145 1 1.83178 -11.6429 0.195572
315 1 6.56811 -4.3569 -0.0373066
149 1 3.6967 -10.9432 -0.108826
313 1 5.79607 -4.85321 -0.0430293
303 1 0.912349 -5.04645 0.0863845
301 1 -0.0813423 -4.81792 0.197139
157 1 7.40568 -11.2497 0.0639566
159 1 8.39355 -11.4125 0.0667169
122 1 -8.98902 -10.1877 0.0557455
161 1 9.16033 -9.42868 -0.0467454
299 1 -1.02687 -4.95562 0.385704
297 1 -2.07158 -4.64985 0.348518
295 1 -2.77823 -4.896 0.113338
293 1 -3.91493 -4.67775 0.178257
128 1 -6.10778 -10.4877 -0.301996
283 1 -8.4806 -5.15863 0.325565
281 1 -9.23238 -5.07436 0.270187
280 1 8.72975 -5.7121 0.193353
279 1 8.26475 -6.36913 -0.10666
267 1 2.70266 -6.3519 -0.141081
134 1 -3.27562 -10.5575 -0.173874
173 1 -3.73259 -9.79724 -0.0305225
175 1 -2.8416 -9.78944 0.0209423
266 1 2.29797 -5.50356 0.0498471
138 1 -1.5743 -10.5775 -0.0401239
177 1 -1.84329 -9.72638 0.12451
140 1 -0.737976 -10.5555 -0.0161314
265 1 1.97428 -6.42936 0.18761
142 1 0.183062 -10.6012 0.10713
264 1 1.544 -5.57821 0.15602
183 1 1.04245 -9.6866 -0.0860329
263 1 1.16044 -6.40939 0.0469247
146 1 1.97435 -10.6766 0.101439